------------------------------------------------------------
          Invoking FHI-aims ...

          When using FHI-aims, please cite the following reference:

            Volker Blum, Ralf Gehrke, Felix Hanke, Paula Havu,
            Ville Havu, Xinguo Ren, Karsten Reuter, and Matthias Scheffler,
            'Ab Initio Molecular Simulations with Numeric Atom-Centered Orbitals',
            Computer Physics Communications 180, 2175-2196 (2009)

          In addition, many other developments in FHI-aims are likely important for
          your particular application. A partial list of references is given at the end of
          this file. Thank you for giving credit to the authors of these developments.

          For any questions about FHI-aims, please visit our slack channel at

            https://fhi-aims.slack.com

          and our main development and support site at

            https://aims-git.rz-berlin.mpg.de .

          The latter site, in particular, has a wiki to collect information, as well
          as an issue tracker to log discussions, suggest improvements, and report issues
          or bugs. https://aims-git.rz-berlin.mpg.de is also the main development site
          of the project and all new and updated code versions can be obtained there.
          Please send an email to aims-coordinators@fhi-berlin.mpg.de and we will add
          you to these sites. They are for you and everyone is welcome there.

------------------------------------------------------------



  Date     :  20230525, Time     :  004607.559
  Time zero on CPU 1             :   0.971320000000000E-01  s.
  Internal wall clock time zero  :           454207567.559  s.

  FHI-aims created a unique identifier for this run for later identification
  aims_uuid : 742CF5BA-CCF8-4793-AE84-6FAE0829D2BC

  Build configuration of the current instance of FHI-aims
  -------------------------------------------------------
  FHI-aims version      : 230314
  Commit number         : 0aa88daf5
  CMake host system     : Linux-5.3.18-150300.59.63-default
  CMake version         : 3.17.0
  Fortran compiler      : /mpcdf/soft/SLE_15/packages/x86_64/intel_oneapi/2022.3/mpi/2021.7.1/bin/mpiifort (Intel) version 20.2.7.20221019
  Fortran compiler flags: -O3 -ip -fp-model precise
  C compiler            : /mpcdf/soft/SLE_15/packages/x86_64/intel_oneapi/2022.3/mpi/2021.7.1/bin/mpiicc (Intel) version 20.2.7.20221019
  C compiler flags      : -O3 -ip -fp-model precise -std=gnu99
  C++ compiler          : /talos/u/system/soft/SLE_15/packages/x86_64/intel_oneapi/2022.3/compiler/2022.2.1/linux/bin/intel64/icpc (Intel) version 20.2.7.20221019
  C++ compiler flags    : -O3 -ip -fp-model precise
  CUDA compiler         : nvcc
  CUDA compiler flags   : -O3 -DAdd_ -arch=sm_70 -lcublas
  HIP compiler          :
  HIP compiler flags    :
  HIP GPU arch          :
  ELPA2 kernel          : AVX512
  Using MPI
  Using ScaLAPACK
  Using LibXC
  Using i-PI
  Using RLSY
  Linking against: /mpcdf/soft/SLE_15/packages/x86_64/intel_oneapi/2022.3/mkl/latest/lib/intel64/libmkl_scalapack_lp64.so
                   /mpcdf/soft/SLE_15/packages/x86_64/intel_oneapi/2022.3/mkl/latest/lib/intel64/libmkl_blacs_intelmpi_lp64.so
                   /mpcdf/soft/SLE_15/packages/x86_64/intel_oneapi/2022.3/mkl/latest/lib/intel64/libmkl_intel_lp64.so
                   /mpcdf/soft/SLE_15/packages/x86_64/intel_oneapi/2022.3/mkl/latest/lib/intel64/libmkl_sequential.so
                   /mpcdf/soft/SLE_15/packages/x86_64/intel_oneapi/2022.3/mkl/latest/lib/intel64/libmkl_core.so
                   /mpcdf/soft/SLE_15/packages/x86_64/cuda/11.4.2/lib64/libcublas.so
                   /mpcdf/soft/SLE_15/packages/x86_64/cuda/11.4.2/lib64/libcudart.so

  Using       40 parallel tasks.
  Task        0 on host talos056 reporting.
  Task        1 on host talos056 reporting.
  Task        2 on host talos056 reporting.
  Task        3 on host talos056 reporting.
  Task        4 on host talos056 reporting.
  Task        5 on host talos056 reporting.
  Task        6 on host talos056 reporting.
  Task        7 on host talos056 reporting.
  Task        8 on host talos056 reporting.
  Task        9 on host talos056 reporting.
  Task       10 on host talos056 reporting.
  Task       11 on host talos056 reporting.
  Task       12 on host talos056 reporting.
  Task       13 on host talos056 reporting.
  Task       14 on host talos056 reporting.
  Task       15 on host talos056 reporting.
  Task       16 on host talos056 reporting.
  Task       17 on host talos056 reporting.
  Task       18 on host talos056 reporting.
  Task       19 on host talos056 reporting.
  Task       20 on host talos056 reporting.
  Task       21 on host talos056 reporting.
  Task       22 on host talos056 reporting.
  Task       23 on host talos056 reporting.
  Task       24 on host talos056 reporting.
  Task       25 on host talos056 reporting.
  Task       26 on host talos056 reporting.
  Task       27 on host talos056 reporting.
  Task       28 on host talos056 reporting.
  Task       29 on host talos056 reporting.
  Task       30 on host talos056 reporting.
  Task       31 on host talos056 reporting.
  Task       32 on host talos056 reporting.
  Task       33 on host talos056 reporting.
  Task       34 on host talos056 reporting.
  Task       35 on host talos056 reporting.
  Task       36 on host talos056 reporting.
  Task       37 on host talos056 reporting.
  Task       38 on host talos056 reporting.
  Task       39 on host talos056 reporting.

  Obtaining array dimensions for all initial allocations:
  
  -----------------------------------------------------------------------
  Parsing control.in (first pass over file, find array dimensions only).
  The contents of control.in will be repeated verbatim below
  unless switched off by setting 'verbatim_writeout .false.' .
  in the first line of control.in .
  -----------------------------------------------------------------------
  
  #===============================================================================
  # FHI-aims file: ./control.in
  # Created using the Atomic Simulation Environment (ASE)
  # Wed May 24 00:40:04 2023
  #===============================================================================
  xc                                 hse06 0.11
  hse_unit                           bohr-1
  k_grid                             18 18 18
  sc_accuracy_rho                    1e-06
  relativistic                       atomic_zora scalar
  walltime                           40000.0
  include_spin_orbit
  sc_init_iter                       200
  output                             soc_eigenvalues
  empty_states                       50
  #===============================================================================
  
  ################################################################################
  #
  #  FHI-aims code project
  #  Volker Blum, 2017
  #
  #  Suggested "intermediate" defaults for Si atom (to be pasted into control.in file)
  #
  ################################################################################
    species        Si
  #     global species definitions
      nucleus             14
      mass                28.0855
  #
      l_hartree           6
  #
      cut_pot             4.0          2.0  1.0
      basis_dep_cutoff    1e-4
  #
      radial_base         42 7.0
      radial_multiplier   2
      angular_grids       specified
        division   0.4121   50
        division   0.7665  110
        division   1.0603  194
        division   1.2846  302
        division   1.4125  434
  #      division   1.4810  590
  #      division   1.5529  770
  #      division   1.6284  974
  #      division   2.6016 1202
  #      outer_grid   974
        outer_grid  434
  ################################################################################
  #
  #  Definition of "minimal" basis
  #
  ################################################################################
  #     valence basis states
      valence      3  s   2.
      valence      3  p   2.
  #     ion occupancy
      ion_occ      3  s   1.
      ion_occ      3  p   1.
  ################################################################################
  #
  #  Suggested additional basis functions. For production calculations,
  #  uncomment them one after another (the most important basis functions are
  #  listed first).
  #
  #  Constructed for dimers: 1.75 A, 2.0 A, 2.25 A, 2.75 A, 3.75 A
  #
  ################################################################################
  #  "First tier" - improvements: -571.96 meV to -37.03 meV
       hydro 3 d 4.2
       hydro 2 p 1.4
       hydro 4 f 6.2
       ionic 3 s auto
  #  "Second tier" - improvements: -16.76 meV to -3.03 meV
  #     hydro 3 d 9
  for_aux     hydro 5 g 9.4
  #     hydro 4 p 4
  #     hydro 1 s 0.65
  #  "Third tier" - improvements: -3.89 meV to -0.60 meV
  #     ionic 3 d auto
  #     hydro 3 s 2.6
  #     hydro 4 f 8.4
  #     hydro 3 d 3.4
  #     hydro 3 p 7.8
  #  "Fourth tier" - improvements: -0.33 meV to -0.11 meV
  #     hydro 2 p 1.6
  #     hydro 5 g 10.8
  #     hydro 5 f 11.2
  #     hydro 3 d 1
  #     hydro 4 s 4.5
  #  Further basis functions that fell out of the optimization - noise
  #  level... < -0.08 meV
  #     hydro 4 d 6.6
  #     hydro 5 g 16.4
  #     hydro 4 d 9
  
  -----------------------------------------------------------------------
  Completed first pass over input file control.in .
  -----------------------------------------------------------------------
  
  
  -----------------------------------------------------------------------
  Parsing geometry.in (first pass over file, find array dimensions only).
  The contents of geometry.in will be repeated verbatim below
  unless switched off by setting 'verbatim_writeout .false.' .
  in the first line of geometry.in .
  -----------------------------------------------------------------------
  
  #=======================================================
  # FHI-aims file: ./geometry.in
  # Created using the Atomic Simulation Environment (ASE)
  # Wed May 24 00:40:04 2023
  #=======================================================
  lattice_vector 0.0000000000000000 2.7218499999999999 2.7218499999999999
  lattice_vector 2.7218499999999999 0.0000000000000000 2.7218499999999999
  lattice_vector 2.7218499999999999 2.7218499999999999 0.0000000000000000
  atom_frac 0.1250000000000000 0.1250000000000000 0.1250000000000000 Si
  atom_frac 0.8750000000000000 0.8750000000000000 0.8750000000000000 Si
  
  -----------------------------------------------------------------------
  Completed first pass over input file geometry.in .
  -----------------------------------------------------------------------
  

  Basic array size parameters:
  | Number of species                 :        1
  | Number of atoms                   :        2
  | Number of lattice vectors         :        3
  | Max. basis fn. angular momentum   :        4
  | Max. atomic/ionic basis occupied n:        3
  | Max. number of basis fn. types    :        3
  | Max. radial fns per species/type  :        5
  | Max. logarithmic grid size        :     1346
  | Max. radial integration grid size :       85
  | Max. angular integration grid size:      434
  | Max. angular grid division number :        8
  | Radial grid for Hartree potential :     1346
  | Number of spin channels           :        1

------------------------------------------------------------
          Reading file control.in.
------------------------------------------------------------

  XC: Using HSE-functional with OMEGA =  0.110000E+00 <units>.
  XC: For the actual units (bohr^-1 or Angstrom^-1), see below.
  hse_unit: Unit for the HSE06 hybrid functional screening parameter set to bohr^(-1).
  Found k-point grid:        18        18        18
  Convergence accuracy of self-consistent charge density:  0.1000E-05
  Scalar relativistic treatment of kinetic energy: on-site free-atom approximation to ZORA.
  Requesting a walltime of    40000 seconds.
  Calculating non-self-consistent second-variational spin-orbit coupling after scf-cycle
  Number of s.-c. iterations prior to a full restart of mixing :   200
  Printing of SOC-perturbed eigenvalues at each SCF k-point requested.
    If SOC is enabled, results will be output to an SOC_eigenvalues.dat file.
    If SOC is not enabled, this request will be ignored.
  Number of empty states per atom:       50
 
  Reading configuration options for species Si                  .
  | Found nuclear charge :  14.0000
  | Found atomic mass :    28.0855000000000      amu
  | Found l_max for Hartree potential  :   6
  | Found cutoff potl. onset [A], width [A], scale factor :    4.00000    2.00000    1.00000
  | Threshold for basis-dependent cutoff potential is   0.100000E-03
  | Found data for basic radial integration grid :    42 points, outermost radius =    7.000 A
  | Found multiplier for basic radial grid :   2
  | Found angular grid specification: user-specified.
  | Specified grid contains     6 separate shells.
  | Check grid settings after all constraints further below.
  | Found free-atom valence shell :  3 s   2.000
  | Found free-atom valence shell :  3 p   2.000
  | Found free-ion valence shell :  3 s   1.000
  | Found free-ion valence shell :  3 p   1.000
  | Found hydrogenic basis function :  3 d   4.200
  | Found hydrogenic basis function :  2 p   1.400
  | Found hydrogenic basis function :  4 f   6.200
  | Found ionic basis function :  3 s , default cutoff radius.
  | Found hydrogenic extended basis function :  5 g   9.400
  Species Si                  : Missing cutoff potential type.
  Defaulting to exp(1/x)/(1-x)^2 type cutoff potential.
  Species Si: No 'logarithmic' tag. Using default grid for free atom:
  | Default logarithmic grid data [bohr] : 0.1000E-03 0.1000E+03 0.1012E+01
  | Will include ionic basis functions of  2.0-fold positive Si                   ion.
  Species Si: On-site basis accuracy parameter (for Gram-Schmidt orthonormalisation) not specified.
  Using default value basis_acc =  0.1000000E-03.
  Species Si                  : Using default innermost maximum threshold i_radial=  2 for radial functions.
  Species Si                  : Default cutoff onset for free atom density etc. : 0.40000000E+01 AA.
  Species Si                  : Basic radial grid will be enhanced according to radial_multiplier =   2, to contain    85 grid points.
 
  Finished reading input file 'control.in'.
 
------------------------------------------------------------


------------------------------------------------------------
          Reading geometry description geometry.in.
------------------------------------------------------------
  | The smallest distance between any two atoms is         2.35719125 AA.
  | The first atom of this pair is atom number                      2 .
  | The second atom of this pair is atom number                     1 .
  | Wigner-Seitz cell of the first atom image           0     0     1 .
  | (The Wigner-Seitz cell of the second atom is 0 0 0  by definition.)

  Symmetry information by spglib:
  | Precision set to  0.1E-04
  | Number of Operations  : 48
  | Space group           : 227
  | International         : Fd-3m
  | Schoenflies           : Oh^7
  Input structure read successfully.
  The structure contains        2 atoms,  and a total of         28.000 electrons.

  Input geometry:
  | Unit cell:
  |        0.00000000        2.72185000        2.72185000
  |        2.72185000        0.00000000        2.72185000
  |        2.72185000        2.72185000        0.00000000
  | Atomic structure:
  |       Atom                x [A]            y [A]            z [A]
  |    1: Species Si            0.68046250        0.68046250        0.68046250
  |    2: Species Si            4.76323750        4.76323750        4.76323750

  Lattice parameters for 3D lattice (in Angstroms) :     3.849277    3.849277    3.849277
  Angle(s) between unit vectors (in degrees)       :    60.000000   60.000000   60.000000


  Quantities derived from the lattice vectors (in Angstrom^-1):
  | Reciprocal lattice vector 1: -1.154212  1.154212  1.154212
  | Reciprocal lattice vector 2:  1.154212 -1.154212  1.154212
  | Reciprocal lattice vector 3:  1.154212  1.154212 -1.154212
  | Unit cell volume                               :   0.403295E+02  Angstrom^3

  Fractional coordinates:
                         L1                L2                L3
       atom_frac         0.12500000        0.12500000        0.12500000  Si
       atom_frac         0.87500000        0.87500000        0.87500000  Si

 
  Finished reading input file 'geometry.in'.
 

 
  Consistency checks for stacksize environment parameter are next.
 
  | Maximum stacksize for task 0: unlimited
  | Maximum stacksize for task 1: unlimited
  | Maximum stacksize for task 2: unlimited
  | Maximum stacksize for task 3: unlimited
  | Maximum stacksize for task 4: unlimited
  | Maximum stacksize for task 5: unlimited
  | Maximum stacksize for task 6: unlimited
  | Maximum stacksize for task 7: unlimited
  | Maximum stacksize for task 8: unlimited
  | Maximum stacksize for task 9: unlimited
  | Maximum stacksize for task 10: unlimited
  | Maximum stacksize for task 11: unlimited
  | Maximum stacksize for task 12: unlimited
  | Maximum stacksize for task 13: unlimited
  | Maximum stacksize for task 14: unlimited
  | Maximum stacksize for task 15: unlimited
  | Maximum stacksize for task 16: unlimited
  | Maximum stacksize for task 17: unlimited
  | Maximum stacksize for task 18: unlimited
  | Maximum stacksize for task 19: unlimited
  | Maximum stacksize for task 20: unlimited
  | Maximum stacksize for task 21: unlimited
  | Maximum stacksize for task 22: unlimited
  | Maximum stacksize for task 23: unlimited
  | Maximum stacksize for task 24: unlimited
  | Maximum stacksize for task 25: unlimited
  | Maximum stacksize for task 26: unlimited
  | Maximum stacksize for task 27: unlimited
  | Maximum stacksize for task 28: unlimited
  | Maximum stacksize for task 29: unlimited
  | Maximum stacksize for task 30: unlimited
  | Maximum stacksize for task 31: unlimited
  | Maximum stacksize for task 32: unlimited
  | Maximum stacksize for task 33: unlimited
  | Maximum stacksize for task 34: unlimited
  | Maximum stacksize for task 35: unlimited
  | Maximum stacksize for task 36: unlimited
  | Maximum stacksize for task 37: unlimited
  | Maximum stacksize for task 38: unlimited
  | Maximum stacksize for task 39: unlimited
  | Current stacksize for task 0: unlimited
  | Current stacksize for task 1: unlimited
  | Current stacksize for task 2: unlimited
  | Current stacksize for task 3: unlimited
  | Current stacksize for task 4: unlimited
  | Current stacksize for task 5: unlimited
  | Current stacksize for task 6: unlimited
  | Current stacksize for task 7: unlimited
  | Current stacksize for task 8: unlimited
  | Current stacksize for task 9: unlimited
  | Current stacksize for task 10: unlimited
  | Current stacksize for task 11: unlimited
  | Current stacksize for task 12: unlimited
  | Current stacksize for task 13: unlimited
  | Current stacksize for task 14: unlimited
  | Current stacksize for task 15: unlimited
  | Current stacksize for task 16: unlimited
  | Current stacksize for task 17: unlimited
  | Current stacksize for task 18: unlimited
  | Current stacksize for task 19: unlimited
  | Current stacksize for task 20: unlimited
  | Current stacksize for task 21: unlimited
  | Current stacksize for task 22: unlimited
  | Current stacksize for task 23: unlimited
  | Current stacksize for task 24: unlimited
  | Current stacksize for task 25: unlimited
  | Current stacksize for task 26: unlimited
  | Current stacksize for task 27: unlimited
  | Current stacksize for task 28: unlimited
  | Current stacksize for task 29: unlimited
  | Current stacksize for task 30: unlimited
  | Current stacksize for task 31: unlimited
  | Current stacksize for task 32: unlimited
  | Current stacksize for task 33: unlimited
  | Current stacksize for task 34: unlimited
  | Current stacksize for task 35: unlimited
  | Current stacksize for task 36: unlimited
  | Current stacksize for task 37: unlimited
  | Current stacksize for task 38: unlimited
  | Current stacksize for task 39: unlimited
 
  Consistency checks for the contents of control.in are next.
 
  HSE06 screening parameters: omega_HF  =      0.11000000 bohr^-1, and
                              omega_PBE =      0.11000000 bohr^-1.
  MPI_IN_PLACE appears to work with this MPI implementation.
  | Keeping use_mpi_in_place .true. (see manual).
  Explicit treatment of the Coulomb operator is needed, but the RI method is not specified.
  Coulomb operator: Defaulting to 'LVL fast' resolution of identity - RI_type = LVL_fast
  Species Si: Using default value for prodbas_acc =   1.000000E-04.
  Species Si: Using default value max_l_prodbas =    20.
  Target number of points in a grid batch is not set. Defaulting to  100
  Method for grid partitioning is not set. Defaulting to parallel hash+maxmin partitioning.
  Batch size limit is not set. Defaulting to    200
  By default, will store active basis functions for each batch.
  If in need of memory, prune_basis_once .false. can be used to disable this option.
  communication_type for Hartree potential was not specified.
  Defaulting to calc_hartree .
  Defaulting to Pulay charge density mixer.
  Pulay mixer: Number of relevant iterations not set.
  Defaulting to    8 iterations.
  Pulay mixer: Number of initial linear mixing iterations not set.
  Defaulting to    0 iterations.
  Work space size for distributed Hartree potential not set.
  Defaulting to   0.200000E+03 MB.
  Mixing parameter for charge density mixing has not been set.
  Using default: charge_mix_param =     0.0500.
  The mixing parameter will be adjusted in iteration number     2 of the first full s.c.f. cycle only.
  Algorithm-dependent basis array size parameters:
  | n_max_pulay                         :        8
  Maximum number of self-consistency iterations not provided.
  Presetting  1000 iterations.
  Presetting a factor      1.000 between actual scf density residual
  and density convergence criterion sc_accuracy_rho below which sc_init_iter
  takes no effect.
  Calculation of forces was not defined in control.in. No forces will be calculated.
  Geometry relaxation not requested: no relaxation will be performed.
  No accuracy limit for integral partition fn. given. Defaulting to  0.1000E-14.
  No threshold value for u(r) in integrations given. Defaulting to  0.1000E-05.
  No occupation type (smearing scheme) given. Defaulting to Gaussian broadening, width =  0.1000E-01 eV.
  The width will be adjusted in iteration number     2 of the first full s.c.f. cycle only.
  S.C.F. convergence parameters will be adjusted in iteration number     2 of the first full s.c.f. cycle only.
  No accuracy for occupation numbers given. Defaulting to  0.1000E-12.
  No threshold value for occupation numbers given. Defaulting to  0.0000E+00.
  No accuracy for fermi level given. Defaulting to  0.1000E-19.
  Maximum # of iterations to find E_F not set. Defaulting to  200.
  Preferred method for the eigenvalue solver ('KS_method') not specified in 'control.in'.
  Defaulting to serial version, LAPACK (via ELSI), since more k-points than CPUs available.
  Will not use alltoall communication since running on < 1024 CPUs.
  Threshold for basis singularities not set.
  Default threshold for basis singularities:  0.1000E-04
  partition_type (choice of integration weights) for integrals was not specified.
  | Using a version of the partition function of Stratmann and coworkers ('stratmann_sparse').
  | At each grid point, the set of atoms used to build the partition table is smoothly restricted to
  | only those atoms whose free-atom density would be non-zero at that grid point.
  Partitioning for Hartree potential was not defined. Using partition_type for integrals.
  | Adjusted default value of keyword multip_moments_threshold to:       0.10000000E-11
  | This value may affect high angular momentum components of the Hartree potential in periodic systems.
  Spin handling was not defined in control.in. Defaulting to unpolarized case.
  Threshold for auxiliary basis singularities not set.
  Default threshold for auxiliary basis singularities:  0.1000E-04
  No q(lm)/r^(l+1) cutoff set for long-range Hartree potential.
  | Using default value of  0.100000E-09 .
  | Verify using the multipole_threshold keyword.
  Defaulting to new monopole extrapolation.
  Density update method: automatic selection selected.
  Using density matrix based charge density update.
  Using density matrix based charge density update.
  Using packed matrix style: index .
 * NOTE: You are attempting to run a periodic structure with an exchange treatment
 * which requires a two-electron Coulomb operator (Hartree-Fock or a hybrid functional).
 * The present implementation is reliable to our knowledge, but some things
 * (like band structure output, or perhaps the auxilary basis set for small
 * orbital basis sets - see the "for_aux" keyword) require extra care.
 * Please let us know if you encounter any trouble.
  Coulomb operator: Defaulting to screening threshold for four-center integrals:   0.100000E-06
  Coulomb operator: Defaulting to screening threshold for Coulomb matrix:   0.100000E-09
  Fock matrix calculation: Setting the screening threshold for overlap matrix to coul_mat_threshold:   0.100000E-09
  Coulomb operator: Defaulting to 'LVL_fast' resolution of identity - RI_type = LVL_fast 
  No other resolution of identity version is supported for periodic boundary conditions at present.
  Coulomb operator: Defaulting to logarithmic spherical Bessel transform integrals (use_logsbt .true.).
  HSE with LVL_fast: Also defaulting to logarithmic spherical Bessel transform integrals.
  Defaulting to use time-reversal symmetry for k-point grid.
  Charge integration errors on the 3D integration grid will be compensated
  by explicit normalization and distribution of residual charges.
  Use the "compensate_multipole_errors" flag to change this behaviour.
  LVL not implemented with density matrix yet
  -> switching to transformed overlap
  LVL probably works better with logsbt
  Default to 1D ("use_logsbt") integrations for auxiliary 2-center integrals.
  Default onset of logarithmic r-grid for SBT is -38.000000000000
  Default onset of logarithmic k-grid for SBT is -25.000000000000
  Default range of logarithmic r- and k-grid for SBT is  45.000000000000
  Default number of logarithmic r- and k-grid for SBT is   4096
  * Use logSBT for radial HSE integration, too
  Set 'collect_eigenvectors' to be '.true.' for all serial calculations. This is mandatory.
  Set 'collect_eigenvectors' to be '.true.' for KS_method lapack_fast and serial.
 
  Consistency checks for the contents of geometry.in are next.
 

  Range separation radius for Ewald summation (hartree_convergence_parameter):      3.89899885 bohr.
  Structure-dependent array size parameters: 
  | Maximum number of distinct radial functions  :       10
  | Maximum number of basis functions            :       68
  | Number of Kohn-Sham states (occupied + empty):       64
------------------------------------------------------------
  Setting Coulomb cut-width to  1.091868692359 * rcut.
  Setting Coulomb cutting radius rcut to 34.643494662707 A.
  After read_input_data [GB]:    180.76

  Performing system and environment tests:
  | Environment variable OMP_NUM_THREADS correctly set to 1.
  | Checking for ScaLAPACK...
  | Testing pdtran()...
  | All pdtran() tests passed.
  After prepare_system [GB]:    180.56

------------------------------------------------------------
          Preparing all fixed parts of the calculation.
------------------------------------------------------------
  Determining machine precision:
    2.225073858507201E-308
  Setting up grids for atomic and cluster calculations.

  Creating wave function, potential, and density for free atoms.
  Runtime choices for atomic solver:
  | atomic solver xc        : PBE
  | compute density gradient: 1
  | compute kinetic density : F

  Species: Si

  List of occupied orbitals and eigenvalues:
    n    l              occ      energy [Ha]    energy [eV]
    1    0           2.0000       -65.775969     -1789.8552
    2    0           2.0000        -5.123557      -139.4191
    3    0           2.0000        -0.394463       -10.7339
    2    1           6.0000        -3.508175       -95.4623
    3    1           2.0000        -0.147003        -4.0002


  Adding cutoff potential to free-atom effective potential.
  Creating fixed part of basis set: Ionic, confined, hydrogenic.
 
  Si                   ion:

  List of free ionic orbitals and eigenvalues:
    n    l      energy [Ha]    energy [eV]
    1    0       -66.641157     -1813.3982
    2    0        -5.964274      -162.2962
    3    0        -1.073878       -29.2217
    2    1        -4.350005      -118.3697
    3    1        -0.776571       -21.1316


  List of ionic basis orbitals and eigenvalues:
    n    l      energy [Ha]    energy [eV]    outer radius [A]
    3    0        -1.073870       -29.2215       4.534782

 
  Si                   hydrogenic:
 
  List of hydrogenic basis orbitals: 
    n    l      effective z      eigenvalue [eV]  inner max. [A]     outer max. [A]     outer radius [A]   
    3    2         4.200000       -26.6668           1.139231           1.139231           5.315897
    2    1         1.400000        -6.6027           1.490786           1.490786           5.447472
    4    3         6.200000       -32.6870           1.368518           1.368518           5.381283
 
  List of extra hydrogenic orbitals for auxiliary basis: 
    n    l      effective z      eigenvalue [eV]  inner max. [A]     outer max. [A]     outer radius [A]   
    5    4         9.400000       -48.0877           1.402391           1.402391           5.251306
 
  Creating atomic-like basis functions for current effective potential.

  Species Si                  :

  List of atomic basis orbitals and eigenvalues:
    n    l      energy [Ha]    energy [eV]    outer radius [A]
    1    0       -65.775969     -1789.8552       0.789468
    2    0        -5.123557      -139.4191       2.815114
    3    0        -0.394463       -10.7339       5.315897
    2    1        -3.508175       -95.4623       3.259919
    3    1        -0.147003        -4.0002       5.447472

  Assembling full basis from fixed parts.
  | Species Si :   atomic orbital   1 s accepted.
  | Species Si :   atomic orbital   2 s accepted.
  | Species Si :    ionic orbital   3 s accepted.
  | Species Si :   atomic orbital   3 s accepted.
  | Species Si :   atomic orbital   2 p accepted.
  | Species Si :   atomic orbital   3 p accepted.
  | Species Si :    hydro orbital   2 p accepted.
  | Species Si :    hydro orbital   3 d accepted.
  | Species Si :    hydro orbital   4 f accepted.

  * You requested       64 Kohn-Sham states in the calculation,
  * but there are only       50 available basis states.
  * Reducing total number of  Kohn-Sham states to       50.
 
 
  Basis size parameters after reduction:
  | Total number of radial functions:        9
  | Total number of basis functions :       50
 
  Assembling extended basis for auxiliary basis.
  | Species Si :   atomic orbital   1 s accepted.
  | Species Si :   atomic orbital   2 s accepted.
  | Species Si :    ionic orbital   3 s accepted.
  | Species Si :   atomic orbital   3 s accepted.
  | Species Si :   atomic orbital   2 p accepted.
  | Species Si :   atomic orbital   3 p accepted.
  | Species Si :    hydro orbital   2 p accepted.
  | Species Si :    hydro orbital   3 d accepted.
  | Species Si :    hydro orbital   4 f accepted.
  | Species Si :    hydro orbital   5 g accepted.
  Per-task memory consumption for arrays in subroutine allocate_ext:
  |           3.447828MB.
 
  Extended basis size parameters after reduction:
  | Total number of radial functions:       10
  | Total number of basis functions :       68
 
  Testing on-site integration grid accuracy.
  |  Species  Function  <phi|h_atom|phi> (log., in eV)  <phi|h_atom|phi> (rad., in eV)
           1        1              -1789.8551969286              -1789.8551654044
           1        2               -139.4190834032               -139.4190829157
           1        3                -10.3851269365                -10.3851269662
           1        4                  5.2748560831                  5.2746879749
           1        5                -95.4622899789                -95.4622898460
           1        6                 -4.0035070090                 -4.0036255172
           1        7                  4.8352944695                  4.8334925957
           1        8                  6.2275610475                  6.2275566925
           1        9                 19.1745287805                 19.1745199964

  Preparing densities etc. for the partition functions (integrals / Hartree potential).

  Preparations completed.
  max(cpu_time)          :      0.186 s.
  Wall clock time (cpu1) :      0.184 s.
------------------------------------------------------------
  After prepare_scf [GB]:    180.16

  Initializing index lists of integration centers etc. from given atomic structure:
  Mapping all atomic coordinates to central unit cell.

  Initializing the k-points
  Using symmetry for reducing the k-points
  | k-points reduced from:     5832 to     2920
  | Number of k-points                             :      2920
  | Consuming     266085 KiB for k_phase_exx.
  The eigenvectors in the calculations are COMPLEX.
  | K-points in task   0:        73
  | K-points in task   1:        73
  | K-points in task   2:        73
  | K-points in task   3:        73
  | K-points in task   4:        73
  | K-points in task   5:        73
  | K-points in task   6:        73
  | K-points in task   7:        73
  | K-points in task   8:        73
  | K-points in task   9:        73
  | K-points in task  10:        73
  | K-points in task  11:        73
  | K-points in task  12:        73
  | K-points in task  13:        73
  | K-points in task  14:        73
  | K-points in task  15:        73
  | K-points in task  16:        73
  | K-points in task  17:        73
  | K-points in task  18:        73
  | K-points in task  19:        73
  | K-points in task  20:        73
  | K-points in task  21:        73
  | K-points in task  22:        73
  | K-points in task  23:        73
  | K-points in task  24:        73
  | K-points in task  25:        73
  | K-points in task  26:        73
  | K-points in task  27:        73
  | K-points in task  28:        73
  | K-points in task  29:        73
  | K-points in task  30:        73
  | K-points in task  31:        73
  | K-points in task  32:        73
  | K-points in task  33:        73
  | K-points in task  34:        73
  | K-points in task  35:        73
  | K-points in task  36:        73
  | K-points in task  37:        73
  | K-points in task  38:        73
  | K-points in task  39:        73
  | Number of basis functions in the Hamiltonian integrals :      2628
  | Number of basis functions in a single unit cell        :        50
  | Number of centers in hartree potential         :       828
  | Number of centers in hartree multipole         :       480
  | Number of centers in electron density summation:       336
  | Number of centers in basis integrals           :       378
  | Number of centers in integrals                 :       150
  | Number of centers in hamiltonian               :       336
  | Consuming       8942 KiB for k_phase.
  | Number of super-cells (origin) [n_cells]                     :        2197
  | Number of super-cells (after PM_index) [n_cells]             :         196
  | Number of super-cells in hamiltonian [n_cells_in_hamiltonian]:         196
  | Size of matrix packed + index [n_hamiltonian_matrix_size] :      145547
  After initialize_bc_dependent_lists [GB]:    169.07

------------------------------------------------------------
          Begin self-consistency loop: Initialization.

          Date     :  20230525, Time     :  004608.371
------------------------------------------------------------
  Available memory per node after initialize_hartree_non_periodic_ewald [GB]:    169.07
  | Estimated reciprocal-space cutoff momentum G_max:         2.49696106 bohr^-1 .
  | Reciprocal lattice points for long-range Hartree potential:      64
  Available memory per node after initialize_recip_hartree_potential [GB]:    169.07
  Available memory per node after initialize_scalapack [GB]:    169.07
  Available memory per node after aims_elsi_init_scf [GB]:    169.07
  Available memory per node after initialize_fixed_grids [GB]:    169.07
  Partitioning the integration grid into batches with parallel hashing+maxmin method.
  | Number of batches:      492
  | Maximal batch size:     109
  | Minimal batch size:      44
  | Average batch size:      72.837
  | Standard deviation of batch sizes:      12.097

  Integration load balanced across    40 MPI tasks.
  Work distribution over tasks is as follows:
  Task     0 has        873 integration points.
  Task     1 has        874 integration points.
  Task     2 has        903 integration points.
  Task     3 has        879 integration points.
  Task     4 has        912 integration points.
  Task     5 has        884 integration points.
  Task     6 has        910 integration points.
  Task     7 has        979 integration points.
  Task     8 has        879 integration points.
  Task     9 has        877 integration points.
  Task    10 has        877 integration points.
  Task    11 has        927 integration points.
  Task    12 has        880 integration points.
  Task    13 has        926 integration points.
  Task    14 has        877 integration points.
  Task    15 has        926 integration points.
  Task    16 has        882 integration points.
  Task    17 has        922 integration points.
  Task    18 has        886 integration points.
  Task    19 has        873 integration points.
  Task    20 has        877 integration points.
  Task    21 has        880 integration points.
  Task    22 has        928 integration points.
  Task    23 has        900 integration points.
  Task    24 has        921 integration points.
  Task    25 has        873 integration points.
  Task    26 has        976 integration points.
  Task    27 has        923 integration points.
  Task    28 has        883 integration points.
  Task    29 has        876 integration points.
  Task    30 has        881 integration points.
  Task    31 has        876 integration points.
  Task    32 has        876 integration points.
  Task    33 has        873 integration points.
  Task    34 has        889 integration points.
  Task    35 has        874 integration points.
  Task    36 has        873 integration points.
  Task    37 has        876 integration points.
  Task    38 has        951 integration points.
  Task    39 has        884 integration points.
  Available memory per node after partition_grid [GB]:    169.06
  Initializing partition tables, free-atom densities, potentials, etc. across the integration grid (initialize_grid_storage).
  | initialize_grid_storage: Actual outermost partition radius vs. multipole_radius_free
  | (-- VB: in principle, multipole_radius_free should be larger, hence this output)
  | Species        1: Confinement radius =              6.000000000000000 AA, multipole_radius_free =              6.007157080273940 AA.
  | Species        1: outer_partition_radius set to              6.007157080273940 AA .
  | The sparse table of interatomic distances needs       1411.49 kbyte instead of      1143.07 kbyte of memory.
  | Using the partition_type stratmann_smoother will reduce your memory usage.
  | Net number of integration points:    35836
  | of which are non-zero points    :    27300
  | Numerical average free-atom electrostatic potential    :    -13.42262835 eV
  Available memory per node after initialize_grid_storage_p1 [GB]:    168.96
  Renormalizing the initial density to the exact electron count on the 3D integration grid.
  | Initial density: Formal number of electrons (from input files) :      28.0000000000
  | Integrated number of electrons on 3D grid     :      28.0024433836
  | Charge integration error                      :       0.0024433836
  | Normalization factor for density and gradient :       0.9999127439
  Renormalizing the free-atom superposition density to the exact electron count on the 3D integration grid.
  | Formal number of electrons (from input files) :      28.0000000000
  | Integrated number of electrons on 3D grid     :      28.0024433836
  | Charge integration error                      :       0.0024433836
  | Normalization factor for density and gradient :       0.9999127439
  Obtaining max. number of non-zero basis functions in each batch (get_n_compute_maxes).
  | Maximal number of non-zero basis functions:      978 in task     0
  | Maximal number of non-zero basis functions:      966 in task     1
  | Maximal number of non-zero basis functions:      929 in task     2
  | Maximal number of non-zero basis functions:      965 in task     3
  | Maximal number of non-zero basis functions:      933 in task     4
  | Maximal number of non-zero basis functions:      927 in task     5
  | Maximal number of non-zero basis functions:      913 in task     6
  | Maximal number of non-zero basis functions:      926 in task     7
  | Maximal number of non-zero basis functions:      945 in task     8
  | Maximal number of non-zero basis functions:      926 in task     9
  | Maximal number of non-zero basis functions:      963 in task    10
  | Maximal number of non-zero basis functions:      924 in task    11
  | Maximal number of non-zero basis functions:      926 in task    12
  | Maximal number of non-zero basis functions:      933 in task    13
  | Maximal number of non-zero basis functions:      909 in task    14
  | Maximal number of non-zero basis functions:      943 in task    15
  | Maximal number of non-zero basis functions:      911 in task    16
  | Maximal number of non-zero basis functions:      966 in task    17
  | Maximal number of non-zero basis functions:      954 in task    18
  | Maximal number of non-zero basis functions:      947 in task    19
  | Maximal number of non-zero basis functions:      945 in task    20
  | Maximal number of non-zero basis functions:      938 in task    21
  | Maximal number of non-zero basis functions:      940 in task    22
  | Maximal number of non-zero basis functions:      959 in task    23
  | Maximal number of non-zero basis functions:      928 in task    24
  | Maximal number of non-zero basis functions:      892 in task    25
  | Maximal number of non-zero basis functions:      928 in task    26
  | Maximal number of non-zero basis functions:      927 in task    27
  | Maximal number of non-zero basis functions:      964 in task    28
  | Maximal number of non-zero basis functions:      966 in task    29
  | Maximal number of non-zero basis functions:      962 in task    30
  | Maximal number of non-zero basis functions:      932 in task    31
  | Maximal number of non-zero basis functions:      966 in task    32
  | Maximal number of non-zero basis functions:      933 in task    33
  | Maximal number of non-zero basis functions:      953 in task    34
  | Maximal number of non-zero basis functions:      940 in task    35
  | Maximal number of non-zero basis functions:      957 in task    36
  | Maximal number of non-zero basis functions:      938 in task    37
  | Maximal number of non-zero basis functions:     1022 in task    38
  | Maximal number of non-zero basis functions:      953 in task    39
  Available memory per node after get_n_compute_maxes_p1 [GB]:    168.94
  Allocating        2.785 MB for KS_eigenvector_complex
  Available memory per node after allocate_matrices [GB]:    168.84
  Available memory per node after init_comm_sparse_local_matrix_scalapack [GB]:    168.84
  Integrating Hamiltonian matrix: batch-based integration.
  Time summed over all CPUs for integration: real work        5.375 s, elapsed        5.885 s
  Available memory per node after integrate hamiltonian matrix [GB]:    168.32
  Integrating overlap matrix.
  Time summed over all CPUs for integration: real work        4.080 s, elapsed        4.515 s
  Available memory per node after integrate ovlp matrix [GB]:    168.23
  Available memory per node after ASI_callbacks invoke [GB]:    168.23
  Available memory per node after save_overlap_scalapack [GB]:    168.23

  Updating Kohn-Sham eigenvalues and eigenvectors using ELSI and the (modified) LAPACK eigensolver.
  Singularity check in k-point 40, task 0 (analysis for other k-points/tasks may follow below):
  Overlap matrix is not singular
  | Lowest and highest eigenvalues :  0.8890E-03,  0.9051E+01
  Finished singularity check of overlap matrix
  | Time :     0.002 s
  Starting LAPACK eigensolver
  Finished Cholesky decomposition
  | Time :     0.000 s
  Finished transformation to standard eigenproblem
  | Time :     0.000 s
  Finished solving standard eigenproblem
  | Time :     0.001 s
  Finished back-transformation of eigenvectors
  | Time :     0.000 s

  Obtaining occupation numbers and electronic chemical potential using ELSI.
  | Note that, for insulating systems, the printed 'chemical potential' value is not uniquely defined.
  | It can be anywhere in the energy gap, as long as it correctly separates occupied and unoccupied states.
  | In systems with a gap, the physically relevant chemical potential is the VBM or HOMO.

  | Chemical potential (Fermi level):    -5.69055159 eV
  Available memory per node after advance_KS_solution [GB]:    168.13
  Writing Kohn-Sham eigenvalues.
  K-point:       1 at    0.000000    0.000000    0.000000 (in units of recip. lattice)

  State    Occupation    Eigenvalue [Ha]    Eigenvalue [eV]
      1       2.00000         -65.804341        -1790.62724
      2       2.00000         -65.804341        -1790.62724
      3       2.00000          -5.156562         -140.31720
      4       2.00000          -5.156287         -140.30972
      5       2.00000          -3.541184          -96.36053
      6       2.00000          -3.541184          -96.36053
      7       2.00000          -3.541184          -96.36053
      8       2.00000          -3.540577          -96.34401
      9       2.00000          -3.540577          -96.34401
     10       2.00000          -3.540577          -96.34401
     11       2.00000          -0.674529          -18.35487
     12       2.00000          -0.240485           -6.54392
     13       2.00000          -0.240485           -6.54392
     14       2.00000          -0.240485           -6.54392
     15       0.00000          -0.138439           -3.76710
     16       0.00000          -0.138439           -3.76710
     17       0.00000          -0.138439           -3.76710
     18       0.00000          -0.119990           -3.26511
     19       0.00000           0.057679            1.56952
     20       0.00000           0.057679            1.56952
     21       0.00000           0.081411            2.21531
     22       0.00000           0.214145            5.82717
     23       0.00000           0.214145            5.82717
     24       0.00000           0.214145            5.82717
     25       0.00000           0.586274           15.95332
     26       0.00000           0.675524           18.38195
     27       0.00000           0.675524           18.38195
     28       0.00000           0.695346           18.92134
     29       0.00000           0.695346           18.92134
     30       0.00000           0.695346           18.92134
     31       0.00000           0.724075           19.70309
     32       0.00000           0.724075           19.70309
     33       0.00000           0.724075           19.70309
     34       0.00000           0.872144           23.73224
     35       0.00000           0.872144           23.73224
     36       0.00000           0.872144           23.73224
     37       0.00000           1.147918           31.23644
     38       0.00000           1.147918           31.23644
     39       0.00000           1.147918           31.23644
     40       0.00000           1.395404           37.97088
     41       0.00000           1.526610           41.54118
     42       0.00000           1.526610           41.54118
     43       0.00000           1.526610           41.54118
     44       0.00000           1.717147           46.72594
     45       0.00000           1.717147           46.72594
     46       0.00000           1.717147           46.72594
     47       0.00000           1.718178           46.75401
     48       0.00000           1.718178           46.75401
     49       0.00000           1.718178           46.75401
     50       0.00000           3.033630           82.54927

  What follows are estimated values for band gap, HOMO, LUMO, etc.
  | They are estimated on a discrete k-point grid and not necessarily exact.
  | For converged numbers, create a DOS and/or band structure plot on a denser k-grid.

  Highest occupied state (VBM) at     -6.54392313 eV (relative to internal zero)
  | Occupation number:      2.00000000
  | K-point:       1 at    0.000000    0.000000    0.000000 (in units of recip. lattice)

  Lowest unoccupied state (CBM) at    -5.64967272 eV (relative to internal zero)
  | Occupation number:      0.00000001
  | K-point:    2356 at    0.611111    0.000000    0.611111 (in units of recip. lattice)

  ESTIMATED overall HOMO-LUMO gap:      0.89425041 eV between HOMO at k-point 1 and LUMO at k-point 2356
  | This appears to be an indirect band gap.
  | Smallest direct gap :      2.77681894 eV for k_point 1 at    0.000000    0.000000    0.000000 (in units of recip. lattice)
  The gap value is above 0.2 eV. Unless you are using a very sparse k-point grid,
  this system is most likely an insulator or a semiconductor.
  Calculating total energy contributions from superposition of free atom densities.

  Total energy components:
  | Sum of eigenvalues            :        -329.71556036 Ha       -8972.01688850 eV
  | XC energy correction          :         -41.72219664 Ha       -1135.31873505 eV
  | XC potential correction       :          53.88215700 Ha        1466.20809175 eV
  | Free-atom electrostatic energy:        -263.18661415 Ha       -7161.67215288 eV
  | Hartree energy correction     :           0.00000000 Ha           0.00000000 eV
  | Entropy correction            :          -0.00000000 Ha          -0.00000000 eV
  | ---------------------------
  | Total energy                  :        -580.74221415 Ha      -15802.79968467 eV
  | Total energy, T -> 0          :        -580.74221415 Ha      -15802.79968467 eV  <-- do not rely on this value for anything but (periodic) metals
  | Electronic free energy        :        -580.74221415 Ha      -15802.79968467 eV

  Derived energy quantities:
  | Kinetic energy                :         582.29770264 Ha       15845.12668009 eV
  | Electrostatic energy          :       -1121.31772015 Ha      -30512.60762971 eV
  | Energy correction for multipole
  | error in Hartree potential    :           0.00000000 Ha           0.00000000 eV
  | Sum of eigenvalues per atom                           :       -4486.00844425 eV
  | Total energy (T->0) per atom                          :       -7901.39984234 eV  <-- do not rely on this value for anything but (periodic) metals
  | Electronic free energy per atom                       :       -7901.39984234 eV
  
  --------------------------------------------
  Constructing auxiliary basis (full product) ...
  
  Product basis:
  | charge radius: extent of product basis function
  | field radius: extent of its Coulomb potential
  | Species   l  charge radius    field radius
  |    Si     0     5.000695 A      5.000695 A
  |    Si     0     5.187500 A      6.464344 A
  |    Si     0     5.251306 A      6.705824 A
  |    Si     0     5.315897 A      7.041889 A
  |    Si     0     5.381283 A     18.497769 A
  |    Si     0     5.381283 A     22.220713 A
  |    Si     0     5.447472 A     23.911865 A
  |    Si     0     5.447472 A     25.110215 A
  |    Si     0     5.447472 A     25.419071 A
  |    Si     0     5.447472 A     25.419071 A
  |    Si     1     4.939933 A      4.939933 A
  |    Si     1     5.124469 A      5.124469 A
  |    Si     1     5.315897 A      9.795773 A
  |    Si     1     5.447472 A     13.963901 A
  |    Si     1     5.447472 A     15.973807 A
  |    Si     1     5.447472 A     22.220713 A
  |    Si     1     5.447472 A     23.911865 A
  |    Si     1     5.447472 A     24.805112 A
  |    Si     1     5.447472 A     25.419071 A
  |    Si     1     5.514476 A     25.731726 A
  |    Si     2     5.124469 A      5.124469 A
  |    Si     2     5.187500 A      5.187500 A
  |    Si     2     5.251306 A      7.216185 A
  |    Si     2     5.315897 A     12.662889 A
  |    Si     2     5.381283 A     20.150418 A
  |    Si     2     5.447472 A     23.050785 A
  |    Si     2     5.447472 A     24.503715 A
  |    Si     2     5.514476 A     25.419071 A
  |    Si     2     5.514476 A     25.731726 A
  |    Si     3     5.062203 A      5.062203 A
  |    Si     3     5.251306 A      5.251306 A
  |    Si     3     5.315897 A     15.026652 A
  |    Si     3     5.381283 A     21.160261 A
  |    Si     3     5.447472 A     23.334310 A
  |    Si     3     5.447472 A     24.503715 A
  |    Si     3     5.447472 A     25.419071 A
  |    Si     4     5.187500 A      5.187500 A
  |    Si     4     5.381283 A      8.154551 A
  |    Si     4     5.381283 A      8.459171 A
  |    Si     4     5.381283 A     14.309526 A
  |    Si     4     5.447472 A     20.903152 A
  |    Si     4     5.447472 A     23.334310 A
  |    Si     4     5.514476 A     24.503715 A
  |    Si     4     5.514476 A     25.419071 A
  |    Si     5     5.381283 A      8.254852 A
  |    Si     5     5.447472 A     18.497769 A
  |    Si     5     5.447472 A     20.903152 A
  |    Si     5     5.447472 A     23.334310 A
  |    Si     5     5.447472 A     24.503715 A
  |    Si     6     5.315897 A     19.188767 A
  |    Si     6     5.381283 A     22.220713 A
  |    Si     6     5.447472 A     23.911865 A
  |    Si     7     5.315897 A     21.160261 A
  |    Si     7     5.381283 A     23.050785 A
  |    Si     8     5.251306 A     21.420533 A

  | Shrink_full_auxil_basis : there are       55  radial auxiliary wave functions
                            accepted and      62 rejected.
  | Shrink_full_auxil_basis : there are totally              116592 partial auxiliary wave functions.
  prodbas_tasks_distribution_pbc not up to date - distributing tasks.
 
  | Number of product basis functions per thread :  2915
  Parallel distribution of product basis not up to date - distributing tasks.
 
  | Number of product basis functions per thread :    18
  | Minimal requirement for computer memory :           0.011 Gbs
  Minimal free memory per node on init_fm entry [GB]:    167.81
  -----------------------------------------
  --- Initializing Fock matrix calculations
  -----------------------------------------
  screening_threshold (crit_val) =  0.000000100000
  coul_mat_threshold =  0.000000000100
  No atoms are split internally
  Number of super-cells in X Y Z:       6       6       6
  Number of atoms pairs total:          586
  Atom pair distribution:
  Cell:       -3      -1       1 atom pairs:        1
  Cell:       -3      -1       2 atom pairs:        1
  Cell:       -3       0       0 atom pairs:        1
  Cell:       -3       0       1 atom pairs:        3
  Cell:       -3       0       2 atom pairs:        4
  Cell:       -3       1      -1 atom pairs:        1
  Cell:       -3       1       0 atom pairs:        3
  Cell:       -3       1       1 atom pairs:        4
  Cell:       -3       1       2 atom pairs:        4
  Cell:       -3       2      -1 atom pairs:        1
  Cell:       -3       2       0 atom pairs:        4
  Cell:       -3       2       1 atom pairs:        4
  Cell:       -3       2       2 atom pairs:        1
  Cell:       -2      -2       0 atom pairs:        1
  Cell:       -2      -2       1 atom pairs:        1
  Cell:       -2      -2       2 atom pairs:        3
  Cell:       -2      -2       3 atom pairs:        1
  Cell:       -2      -1      -1 atom pairs:        1
  Cell:       -2      -1       0 atom pairs:        3
  Cell:       -2      -1       1 atom pairs:        4
  Cell:       -2      -1       2 atom pairs:        4
  Cell:       -2      -1       3 atom pairs:        4
  Cell:       -2       0      -2 atom pairs:        1
  Cell:       -2       0      -1 atom pairs:        3
  Cell:       -2       0       0 atom pairs:        4
  Cell:       -2       0       1 atom pairs:        4
  Cell:       -2       0       2 atom pairs:        4
  Cell:       -2       0       3 atom pairs:        4
  Cell:       -2       1      -2 atom pairs:        1
  Cell:       -2       1      -1 atom pairs:        4
  Cell:       -2       1       0 atom pairs:        4
  Cell:       -2       1       1 atom pairs:        4
  Cell:       -2       1       2 atom pairs:        4
  Cell:       -2       1       3 atom pairs:        1
  Cell:       -2       2      -2 atom pairs:        3
  Cell:       -2       2      -1 atom pairs:        4
  Cell:       -2       2       0 atom pairs:        4
  Cell:       -2       2       1 atom pairs:        4
  Cell:       -2       2       2 atom pairs:        3
  Cell:       -2       3      -2 atom pairs:        1
  Cell:       -2       3      -1 atom pairs:        4
  Cell:       -2       3       0 atom pairs:        4
  Cell:       -2       3       1 atom pairs:        1
  Cell:       -1      -3       1 atom pairs:        1
  Cell:       -1      -3       2 atom pairs:        1
  Cell:       -1      -2      -1 atom pairs:        1
  Cell:       -1      -2       0 atom pairs:        3
  Cell:       -1      -2       1 atom pairs:        4
  Cell:       -1      -2       2 atom pairs:        4
  Cell:       -1      -2       3 atom pairs:        4
  Cell:       -1      -1      -2 atom pairs:        1
  Cell:       -1      -1      -1 atom pairs:        3
  Cell:       -1      -1       0 atom pairs:        4
  Cell:       -1      -1       1 atom pairs:        4
  Cell:       -1      -1       2 atom pairs:        4
  Cell:       -1      -1       3 atom pairs:        4
  Cell:       -1       0      -2 atom pairs:        3
  Cell:       -1       0      -1 atom pairs:        4
  Cell:       -1       0       0 atom pairs:        4
  Cell:       -1       0       1 atom pairs:        4
  Cell:       -1       0       2 atom pairs:        4
  Cell:       -1       0       3 atom pairs:        3
  Cell:       -1       1      -3 atom pairs:        1
  Cell:       -1       1      -2 atom pairs:        4
  Cell:       -1       1      -1 atom pairs:        4
  Cell:       -1       1       0 atom pairs:        4
  Cell:       -1       1       1 atom pairs:        4
  Cell:       -1       1       2 atom pairs:        4
  Cell:       -1       1       3 atom pairs:        1
  Cell:       -1       2      -3 atom pairs:        1
  Cell:       -1       2      -2 atom pairs:        4
  Cell:       -1       2      -1 atom pairs:        4
  Cell:       -1       2       0 atom pairs:        4
  Cell:       -1       2       1 atom pairs:        4
  Cell:       -1       2       2 atom pairs:        1
  Cell:       -1       3      -2 atom pairs:        4
  Cell:       -1       3      -1 atom pairs:        4
  Cell:       -1       3       0 atom pairs:        3
  Cell:       -1       3       1 atom pairs:        1
  Cell:        0      -3       0 atom pairs:        1
  Cell:        0      -3       1 atom pairs:        3
  Cell:        0      -3       2 atom pairs:        4
  Cell:        0      -2      -2 atom pairs:        1
  Cell:        0      -2      -1 atom pairs:        3
  Cell:        0      -2       0 atom pairs:        4
  Cell:        0      -2       1 atom pairs:        4
  Cell:        0      -2       2 atom pairs:        4
  Cell:        0      -2       3 atom pairs:        4
  Cell:        0      -1      -2 atom pairs:        3
  Cell:        0      -1      -1 atom pairs:        4
  Cell:        0      -1       0 atom pairs:        4
  Cell:        0      -1       1 atom pairs:        4
  Cell:        0      -1       2 atom pairs:        4
  Cell:        0      -1       3 atom pairs:        3
  Cell:        0       0      -3 atom pairs:        1
  Cell:        0       0      -2 atom pairs:        4
  Cell:        0       0      -1 atom pairs:        4
  Cell:        0       0       0 atom pairs:        4
  Cell:        0       0       1 atom pairs:        4
  Cell:        0       0       2 atom pairs:        4
  Cell:        0       0       3 atom pairs:        1
  Cell:        0       1      -3 atom pairs:        3
  Cell:        0       1      -2 atom pairs:        4
  Cell:        0       1      -1 atom pairs:        4
  Cell:        0       1       0 atom pairs:        4
  Cell:        0       1       1 atom pairs:        4
  Cell:        0       1       2 atom pairs:        3
  Cell:        0       2      -3 atom pairs:        4
  Cell:        0       2      -2 atom pairs:        4
  Cell:        0       2      -1 atom pairs:        4
  Cell:        0       2       0 atom pairs:        4
  Cell:        0       2       1 atom pairs:        3
  Cell:        0       2       2 atom pairs:        1
  Cell:        0       3      -2 atom pairs:        4
  Cell:        0       3      -1 atom pairs:        3
  Cell:        0       3       0 atom pairs:        1
  Cell:        1      -3      -1 atom pairs:        1
  Cell:        1      -3       0 atom pairs:        3
  Cell:        1      -3       1 atom pairs:        4
  Cell:        1      -3       2 atom pairs:        4
  Cell:        1      -2      -2 atom pairs:        1
  Cell:        1      -2      -1 atom pairs:        4
  Cell:        1      -2       0 atom pairs:        4
  Cell:        1      -2       1 atom pairs:        4
  Cell:        1      -2       2 atom pairs:        4
  Cell:        1      -2       3 atom pairs:        1
  Cell:        1      -1      -3 atom pairs:        1
  Cell:        1      -1      -2 atom pairs:        4
  Cell:        1      -1      -1 atom pairs:        4
  Cell:        1      -1       0 atom pairs:        4
  Cell:        1      -1       1 atom pairs:        4
  Cell:        1      -1       2 atom pairs:        4
  Cell:        1      -1       3 atom pairs:        1
  Cell:        1       0      -3 atom pairs:        3
  Cell:        1       0      -2 atom pairs:        4
  Cell:        1       0      -1 atom pairs:        4
  Cell:        1       0       0 atom pairs:        4
  Cell:        1       0       1 atom pairs:        4
  Cell:        1       0       2 atom pairs:        3
  Cell:        1       1      -3 atom pairs:        4
  Cell:        1       1      -2 atom pairs:        4
  Cell:        1       1      -1 atom pairs:        4
  Cell:        1       1       0 atom pairs:        4
  Cell:        1       1       1 atom pairs:        3
  Cell:        1       1       2 atom pairs:        1
  Cell:        1       2      -3 atom pairs:        4
  Cell:        1       2      -2 atom pairs:        4
  Cell:        1       2      -1 atom pairs:        4
  Cell:        1       2       0 atom pairs:        3
  Cell:        1       2       1 atom pairs:        1
  Cell:        1       3      -2 atom pairs:        1
  Cell:        1       3      -1 atom pairs:        1
  Cell:        2      -3      -1 atom pairs:        1
  Cell:        2      -3       0 atom pairs:        4
  Cell:        2      -3       1 atom pairs:        4
  Cell:        2      -3       2 atom pairs:        1
  Cell:        2      -2      -2 atom pairs:        3
  Cell:        2      -2      -1 atom pairs:        4
  Cell:        2      -2       0 atom pairs:        4
  Cell:        2      -2       1 atom pairs:        4
  Cell:        2      -2       2 atom pairs:        3
  Cell:        2      -1      -3 atom pairs:        1
  Cell:        2      -1      -2 atom pairs:        4
  Cell:        2      -1      -1 atom pairs:        4
  Cell:        2      -1       0 atom pairs:        4
  Cell:        2      -1       1 atom pairs:        4
  Cell:        2      -1       2 atom pairs:        1
  Cell:        2       0      -3 atom pairs:        4
  Cell:        2       0      -2 atom pairs:        4
  Cell:        2       0      -1 atom pairs:        4
  Cell:        2       0       0 atom pairs:        4
  Cell:        2       0       1 atom pairs:        3
  Cell:        2       0       2 atom pairs:        1
  Cell:        2       1      -3 atom pairs:        4
  Cell:        2       1      -2 atom pairs:        4
  Cell:        2       1      -1 atom pairs:        4
  Cell:        2       1       0 atom pairs:        3
  Cell:        2       1       1 atom pairs:        1
  Cell:        2       2      -3 atom pairs:        1
  Cell:        2       2      -2 atom pairs:        3
  Cell:        2       2      -1 atom pairs:        1
  Cell:        2       2       0 atom pairs:        1
  Cell:        3      -2      -2 atom pairs:        1
  Cell:        3      -2      -1 atom pairs:        4
  Cell:        3      -2       0 atom pairs:        4
  Cell:        3      -2       1 atom pairs:        1
  Cell:        3      -1      -2 atom pairs:        4
  Cell:        3      -1      -1 atom pairs:        4
  Cell:        3      -1       0 atom pairs:        3
  Cell:        3      -1       1 atom pairs:        1
  Cell:        3       0      -2 atom pairs:        4
  Cell:        3       0      -1 atom pairs:        3
  Cell:        3       0       0 atom pairs:        1
  Cell:        3       1      -2 atom pairs:        1
  Cell:        3       1      -1 atom pairs:        1
  sparsity of pfbvk:   1.000000
  Number of atoms pairs in BvK cells:          586
  Max. memory consumption per node for Pulay mixing [GB]:      1.58
  Minimal total memory per node [GB]:    197.43
  Minimal free memory per node [GB]:    155.71
  --- Initializing LVL triples, type HSE
  | Storage requirements for basis-basbas products (processor-local):
  |   Species Si: n_prodsfn:   816; storage:       25.50 MiB.

  --- Initializing Coulomb matrix calculations, type HSE
  Preparing TB like auxiliary 2-center HSE-pot matrix
  SBT integration errors (all should be 'small'):
  large logFT aliasing -> increase N/lnrange
  large SBT aliasing -> decrease lnk0 & increase lnk0+lnrange
  large SBT ringing -> decrease lnr0 & increase lnr0+lnrange
  |            El't  L: logFT-al.   small-k   large-k   small-r   large-r
  | Need to store  3840 splines of   240 points taking       7264 KiB.
  | Spline reduction from  4096 to   240 points by (cutting and)     1 x coarsening gives error:  0.00E+00
  | Maximum value outside interaction range:  1.23E-13
  Finished with initialize_tb_auxmat/lvl_triples, time:        0.258
  --- Calculating Coulomb matrices
  Upper limit for memory consumption per node [GB] for Coulomb matrices if no compression occurs:       0.077
  Upper limit for temporary arrays in Coulomb matrix initalization [GB]:     12.00
  Min./max. time for Coulomb matrix computation [s]:     62.51     66.24
  Max. memory consumption per node for global Coulomb matrix [GB]:      1.50
  Time to calculate Coulomb Matrices   :       66.284
  After init_coulomb_tuned [GB]:    151.91
  Max. memory consumption per node for uncompressed ovlp3fn matrix [GB]:       1.017
  --- Calculating OVLP3FN
  --- Done calculating OVLP3FN, time:        5.178
  After init_ovlp3fn_tuned2 [GB]:    148.50
  Max. memory consumption per node for compressed global ovlp3fn matrix [GB]:       1.427
  Atomic logSBT for 2-center HSE-pot matrix    :  max(cpu_time)    wall_clock(cpu1)
  | TB initialization                           :        0.080 s           0.080 s
  | TB usage                                    :       16.803 s          16.805 s

  Atomic logSBT for LVL-triples                :  max(cpu_time)    wall_clock(cpu1)
  | Multiplication with kernel                  :        0.024 s           0.015 s
  | Main matrix multiplication                  :        2.514 s           1.640 s
  | Analytic angular integration                :        0.028 s           0.025 s
  | Kernel construction                         :        0.027 s           0.023 s
  | Overall 2-center overlap time               :        2.733 s           1.832 s
  | 3-center preparation multiplications        :        0.033 s           0.026 s
  | 3-center preparation SBTs                   :        0.533 s           0.458 s
  | 3-center combinations                       :        3.264 s           2.394 s
  | Overal 3-center time                        :        3.729 s           2.878 s
  | LVL initialization                          :        0.177 s           0.177 s
  | Whole LVL-triples                           :        0.177 s           0.177 s

  Assumed free memory per node for Fock matrix prefactors [GB]    135.96
  Memory per instance for Coulomb / ovlp matrix [GB]      1.50      1.43
  Number of nodes, tasks per node     1    40
  Number of instances:    8
  -----------------------------------------------------
  Dividing atoms among tasks for exact exchange energy:
  Atom:     1 Weight:  0.63544E+08
  Atom:     2 Weight:  0.63544E+08

  Average weight per task:  0.25418E+08

  Number of "big" (above average) atoms  :     2
  Number of "small" (below average) atoms:     0
  All atoms have above average work per task
  Atoms will be divided among tasks to get best load distribution

  Atom division among tasks:
  Atom     1: (initial) task:     0, # of tasks:     3
  Atom     2: (initial) task:     3, # of tasks:     2

  -----------------------------------------------------
  Task      0: my_n_atoms2:      1 my_atom_list:      1
  Task      1: my_n_atoms2:      1 my_atom_list:      1
  Task      2: my_n_atoms2:      1 my_atom_list:      1
  Task      3: my_n_atoms2:      1 my_atom_list:      2
  Task      4: my_n_atoms2:      1 my_atom_list:      2
  Task      0: my_n_atoms2:      1 my_atom_list:      1
  Task      1: my_n_atoms2:      1 my_atom_list:      1
  Task      2: my_n_atoms2:      1 my_atom_list:      1
  Task      3: my_n_atoms2:      1 my_atom_list:      2
  Task      4: my_n_atoms2:      1 my_atom_list:      2
  Task      0: my_n_atoms2:      1 my_atom_list:      1
  Task      1: my_n_atoms2:      1 my_atom_list:      1
  Task      2: my_n_atoms2:      1 my_atom_list:      1
  Task      3: my_n_atoms2:      1 my_atom_list:      2
  Task      4: my_n_atoms2:      1 my_atom_list:      2
  Task      0: my_n_atoms2:      1 my_atom_list:      1
  Task      1: my_n_atoms2:      1 my_atom_list:      1
  Task      2: my_n_atoms2:      1 my_atom_list:      1
  Task      3: my_n_atoms2:      1 my_atom_list:      2
  Task      4: my_n_atoms2:      1 my_atom_list:      2
  Task      0: my_n_atoms2:      1 my_atom_list:      1
  Task      1: my_n_atoms2:      1 my_atom_list:      1
  Task      2: my_n_atoms2:      1 my_atom_list:      1
  Task      3: my_n_atoms2:      1 my_atom_list:      2
  Task      4: my_n_atoms2:      1 my_atom_list:      2
  Task      0: my_n_atoms2:      1 my_atom_list:      1
  Task      1: my_n_atoms2:      1 my_atom_list:      1
  Task      2: my_n_atoms2:      1 my_atom_list:      1
  Task      3: my_n_atoms2:      1 my_atom_list:      2
  Task      4: my_n_atoms2:      1 my_atom_list:      2
  Task      0: my_n_atoms2:      1 my_atom_list:      1
  Task      1: my_n_atoms2:      1 my_atom_list:      1
  Task      2: my_n_atoms2:      1 my_atom_list:      1
  Task      3: my_n_atoms2:      1 my_atom_list:      2
  Task      4: my_n_atoms2:      1 my_atom_list:      2
  Task      0: my_n_atoms2:      1 my_atom_list:      1
  Task      1: my_n_atoms2:      1 my_atom_list:      1
  Task      2: my_n_atoms2:      1 my_atom_list:      1
  Task      3: my_n_atoms2:      1 my_atom_list:      2
  Task      4: my_n_atoms2:      1 my_atom_list:      2
  Task      0: my_n_atom_pairs:     97
  Task      1: my_n_atom_pairs:     98
  Task      2: my_n_atom_pairs:     98
  Task      3: my_n_atom_pairs:    147
  Task      4: my_n_atom_pairs:    146
  Task      0: my_n_atom_pairs:     97
  Task      1: my_n_atom_pairs:     98
  Task      2: my_n_atom_pairs:     98
  Task      3: my_n_atom_pairs:    147
  Task      4: my_n_atom_pairs:    146
  Task      0: my_n_atom_pairs:     97
  Task      1: my_n_atom_pairs:     98
  Task      2: my_n_atom_pairs:     98
  Task      3: my_n_atom_pairs:    147
  Task      4: my_n_atom_pairs:    146
  Task      0: my_n_atom_pairs:     97
  Task      1: my_n_atom_pairs:     98
  Task      2: my_n_atom_pairs:     98
  Task      3: my_n_atom_pairs:    147
  Task      4: my_n_atom_pairs:    146
  Task      0: my_n_atom_pairs:     97
  Task      1: my_n_atom_pairs:     98
  Task      2: my_n_atom_pairs:     98
  Task      3: my_n_atom_pairs:    147
  Task      4: my_n_atom_pairs:    146
  Task      0: my_n_atom_pairs:     97
  Task      1: my_n_atom_pairs:     98
  Task      2: my_n_atom_pairs:     98
  Task      3: my_n_atom_pairs:    147
  Task      4: my_n_atom_pairs:    146
  Task      0: my_n_atom_pairs:     97
  Task      1: my_n_atom_pairs:     98
  Task      2: my_n_atom_pairs:     98
  Task      3: my_n_atom_pairs:    147
  Task      4: my_n_atom_pairs:    146
  Task      0: my_n_atom_pairs:     97
  Task      1: my_n_atom_pairs:     98
  Task      2: my_n_atom_pairs:     98
  Task      3: my_n_atom_pairs:    147
  Task      4: my_n_atom_pairs:    146
  Transferring Coulomb matrix to final data layout
  Coulomb matrix communicaton time [s]    0.35
  Max. memory per node for ovlp3fn matrices:        3.589 GB
  Total memory for ovlp3fn matrices:        0.449 GB
  --- Done getting norm of OVLP3FN, time:        0.010
  Total memory for ovlp3fn matrices:        0.449 GB
  --- time for get_ovlp3fn:        0.113
  Max. memory consumption per node for Hartree Fock matrix [GB]      1.58
  Blocksize for Fock matrix computation:     1
  Minimal free memory per node after Fock matrix initialization [GB]:    136.84
  Initialize hartree_potential_storage
  Max. number of atoms included in rho_multipole:            2

  End scf initialization - timings             :  max(cpu_time)    wall_clock(cpu1)
  | Time for scf. initialization                :       75.591 s          75.597 s
  | Boundary condition initialization           :        0.522 s           0.523 s
  | Integration                                 :        0.269 s           0.269 s
  | Solution of K.-S. eqns.                     :        0.211 s           0.211 s
  | Grid partitioning                           :        0.037 s           0.038 s
  | Preloading free-atom quantities on grid     :        0.074 s           0.075 s
  | Free-atom superposition energy              :        0.006 s           0.007 s
  | Total energy evaluation                     :        0.005 s           0.004 s
  | Product basis setup: Total time             :       74.987 s          74.990 s

  Partial memory accounting:
  | Current value for overall tracked memory usage:
  |   Minimum:       77.119 MB (on task  0)
  |   Maximum:      114.405 MB (on task  4)
  |   Average:       91.867 MB
  | Peak value for overall tracked memory usage:
  |   Minimum:      195.755 MB (on task  0 after allocating aux_mat)
  |   Maximum:      195.755 MB (on task  0 after allocating aux_mat)
  |   Average:      195.755 MB
  | Largest tracked array allocation so far:
  |   Minimum:      190.160 MB (aux_mat on task  0)
  |   Maximum:      190.160 MB (aux_mat on task  0)
  |   Average:      190.160 MB
  Note:  These values currently only include a subset of arrays which are explicitly tracked.
  The "true" memory usage will be greater.
------------------------------------------------------------
  Available memory after initialize_scf [GB]:    136.84
  Available memory after allocating mixing [GB]:    136.84
  Evaluating new KS density using the density matrix
  Evaluating density matrix
  Time summed over all CPUs for getting density from density matrix: real work        8.493 s, elapsed        9.255 s
  Integration grid: deviation in total charge (<rho> - N_e) =   7.933210E-12

  Time for density update prior                :  max(cpu_time)    wall_clock(cpu1)
  | self-consistency iterative process          :        0.279 s           0.279 s
  Available memory before start of SCF loop [GB]:    136.76

------------------------------------------------------------
          Begin self-consistency iteration #    1

  Date     :  20230525, Time     :  004724.247
------------------------------------------------------------
  Pulay mixing of updated and previous charge densities.
  Available memory per node after mixing [GB]:    136.76
  Renormalizing the density to the exact electron count on the 3D integration grid.
  | Formal number of electrons (from input files) :      28.0000000000
  | Integrated number of electrons on 3D grid     :      28.0000000000
  | Charge integration error                      :       0.0000000000
  | Normalization factor for density and gradient :       1.0000000000

  Evaluating partitioned Hartree potential by multipole expansion.
  | Original multipole sum: apparent total charge =  -0.214312E-13
  | Sum of charges compensated after spline to logarithmic grids =   0.230414E-07
  | Analytical far-field extrapolation by fixed multipoles:
  | Hartree multipole sum: apparent total charge =   0.000000E+00
  Summing up the Hartree potential.
  Time summed over all CPUs for potential: real work        0.034 s, elapsed        0.036 s
  | RMS charge density error from multipole expansion :   0.322323E-03
  | Average real-space part of the electrostatic potential :      0.02242084 eV

  Integrating Hamiltonian matrix: batch-based integration.
  Time summed over all CPUs for integration: real work        5.516 s, elapsed        6.070 s
  Max. memory consumption per node for dm_cols [GB]:      2.33
  Max. memory consumption per node for fock_matrix [GB]:      1.63
  Calculating non-local Hartree-Fock exchange by two-center RI (RI-LVL).
  screening_threshold (crit_val) =  0.000000100000
  Max. allocated memory per node for ovlp3fn_rcv [GB]:      0.04
  Max. allocated memory per node for fock_matrix_row [GB]:      0.09
  Max. memory consumption per node for m_ovlp_fact11 [GB]:      0.00
  Max. memory consumption per node for d_aux_mem [GB]:      0.05
  Max. memory consumption per node for dm_x_o3fn_aux [GB]:      0.65
  Max. allocated memory per node for tmp1/tmp2 [GB]:     32.38
   final impselect vector           4           3           6           1
   Time for autotuning:    9.72344297170639
  Exact exchange progress report - outermost block loop i_block: 1 ..       7
  |        1         2         3         4         5         6         7 Total ovlp3fn data transfer [GB]  7.586807897314429E-002
  Full exact exchange energy:    1066.250911953200 eV.
  Detailed communication and barrier times:
  | Comm    0:        0.000       0.000       0.000       0.128       0.003       0.000       0.000       0.000       0.000       0.223
  | Comm    1:        0.000       0.000       0.000       0.128       0.003       0.000       0.000       0.000       0.000       0.223
  | Comm    2:        0.000       0.000       0.000       0.128       0.003       0.000       0.000       0.000       0.000       0.223
[...]
      2       1.00000                   -1812.522947       -1812.522947             0.000000
      3       1.00000                   -1812.522908       -1812.522908             0.000039
      4       1.00000                   -1812.522908       -1812.522908             0.000000
      5       1.00000                    -146.855630        -146.855630          1665.667278
      6       1.00000                    -146.855630        -146.855630             0.000000
      7       1.00000                    -146.846595        -146.846595             0.009035
      8       1.00000                    -146.846595        -146.846595             0.000000
      9       1.00000                    -100.768035        -101.188597            45.657997
     10       1.00000                    -100.768035        -101.188597             0.000000
     11       1.00000                    -100.768035        -101.172203             0.016394
     12       1.00000                    -100.768035        -101.172203             0.000000
     13       1.00000                    -100.768035        -100.557902             0.614301
     14       1.00000                    -100.768035        -100.557902             0.000000
     15       1.00000                    -100.751074        -100.557881             0.000021
     16       1.00000                    -100.751074        -100.557881             0.000000
     17       1.00000                    -100.751074        -100.540704             0.017177
     18       1.00000                    -100.751074        -100.540704             0.000000
     19       1.00000                    -100.751074        -100.540692             0.000012
     20       1.00000                    -100.751074        -100.540692             0.000000
     21       1.00000                     -19.603498         -19.603498            80.937195
     22       1.00000                     -19.603498         -19.603498             0.000000
     23       1.00000                      -6.360068          -6.389555            13.213943
     24       1.00000                      -6.360068          -6.389555             0.000000
     25       1.00000                      -6.360068          -6.345318             0.044237
     26       1.00000                      -6.360068          -6.345318             0.000000
     27       1.00000                      -6.360067          -6.345170             0.000148
     28       1.00000                      -6.360067          -6.345170             0.000000
     29       0.00000                      -3.028307          -3.050963             3.294207
     30       0.00000                      -3.028307          -3.050963             0.000000
     31       0.00000                      -3.028307          -3.016975             0.033988
     32       0.00000                      -3.028307          -3.016975             0.000000
     33       0.00000                      -3.028306          -3.016897             0.000078
     34       0.00000                      -3.028306          -3.016897             0.000000
     35       0.00000                      -2.147205          -2.147205             0.869692
     36       0.00000                      -2.147205          -2.147205             0.000000
     37       0.00000                       2.618901           2.618884             4.766090
     38       0.00000                       2.618901           2.618884             0.000000
     39       0.00000                       2.618903           2.618920             0.000036
     40       0.00000                       2.618903           2.618920             0.000000
     41       0.00000                       3.099311           3.099311             0.480391
     42       0.00000                       3.099311           3.099311             0.000000
     43       0.00000                       6.928228           6.922036             3.822724
     44       0.00000                       6.928228           6.922036             0.000000
     45       0.00000                       6.928231           6.931326             0.009290
     46       0.00000                       6.928231           6.931326             0.000000
     47       0.00000                       6.928231           6.931380             0.000054
     48       0.00000                       6.928231           6.931380             0.000000
     49       0.00000                      17.075377          17.075377            10.143997
     50       0.00000                      17.075377          17.075377             0.000000
     51       0.00000                      20.368817          20.368734             3.293357
     52       0.00000                      20.368817          20.368734             0.000000
     53       0.00000                      20.368831          20.368903             0.000169
     54       0.00000                      20.368831          20.368903             0.000000
     55       0.00000                      20.771966          20.763219             0.394316
     56       0.00000                      20.771966          20.763219             0.000000
     57       0.00000                      20.772006          20.776313             0.013094
     58       0.00000                      20.772006          20.776313             0.000000
     59       0.00000                      20.772006          20.776504             0.000190
     60       0.00000                      20.772006          20.776504             0.000000
     61       0.00000                      21.700548          21.665054             0.888550
     62       0.00000                      21.700548          21.665054             0.000000
     63       0.00000                      21.700548          21.718127             0.053073
     64       0.00000                      21.700548          21.718127             0.000000
     65       0.00000                      21.700602          21.718701             0.000574
     66       0.00000                      21.700602          21.718701             0.000000
     67       0.00000                      25.389758          25.389628             3.670926
     68       0.00000                      25.389758          25.389628             0.000000
     69       0.00000                      25.389758          25.389804             0.000176
     70       0.00000                      25.389758          25.389804             0.000000
     71       0.00000                      25.389761          25.389847             0.000043
     72       0.00000                      25.389761          25.389847             0.000000
     73       0.00000                      32.897809          32.886760             7.496913
     74       0.00000                      32.897809          32.886760             0.000000
     75       0.00000                      32.897809          32.902560             0.015799
     76       0.00000                      32.897809          32.902560             0.000000
     77       0.00000                      32.898168          32.904469             0.001910
     78       0.00000                      32.898168          32.904469             0.000000
     79       0.00000                      40.241122          40.241122             7.336653
     80       0.00000                      40.241122          40.241122             0.000000
     81       0.00000                      43.526556          43.513285             3.272163
     82       0.00000                      43.526556          43.513285             0.000000
     83       0.00000                      43.526556          43.532926             0.019641
     84       0.00000                      43.526556          43.532926             0.000000
     85       0.00000                      43.526718          43.533715             0.000788
     86       0.00000                      43.526718          43.533715             0.000000
     87       0.00000                      48.534729          48.479755             4.946041
     88       0.00000                      48.534729          48.479755             0.000000
     89       0.00000                      48.535005          48.560772             0.081017
     90       0.00000                      48.535005          48.560772             0.000000
     91       0.00000                      48.535005          48.564221             0.003449
     92       0.00000                      48.535005          48.564221             0.000000
     93       0.00000                      48.731342          48.730726             0.166505
     94       0.00000                      48.731342          48.730726             0.000000
     95       0.00000                      48.731353          48.731527             0.000801
     96       0.00000                      48.731353          48.731527             0.000000
     97       0.00000                      48.731353          48.731803             0.000276
     98       0.00000                      48.731353          48.731803             0.000000
     99       0.00000                      85.090112          85.090116            36.358313
    100       0.00000                      85.090112          85.090116             0.000000

  What follows are estimated values for band gap, HOMO, LUMO, etc.
  | They are estimated on a discrete k-point grid and not necessarily exact.
  | For converged numbers, create a DOS and/or band structure plot on a denser k-grid.

  Highest occupied state (VBM) at     -6.34517001 eV (relative to internal zero)
  | Occupation number:      1.00000000
  | K-point:       1 at    0.000000    0.000000    0.000000 (in units of recip. lattice)

  Lowest unoccupied state (CBM) at    -5.15701731 eV (relative to internal zero)
  | Occupation number:      0.00000000
  | K-point:     111 at    0.000000    0.444444    0.444444 (in units of recip. lattice)

  ESTIMATED overall HOMO-LUMO gap:      1.18815270 eV between HOMO at k-point 1 and LUMO at k-point 111
  | This appears to be an indirect band gap.
  | Smallest direct gap :      3.29420678 eV for k_point 1 at    0.000000    0.000000    0.000000 (in units of recip. lattice)
  The gap value is above 0.2 eV. Unless you are using a very sparse k-point grid,
  this system is most likely an insulator or a semiconductor.

  Spin-orbit coupling                                     :  max(cpu_time)    wall_clock(cpu1)
  | Computing matrix elements for SOC operator            :          1.067               1.067
  | Constructing second-variational Hamiltonian           :          0.095               0.092
  | Diagonalizing second-variational Hamiltonian          :          0.474               0.477
  | Syncing data and calculating occupations              :          0.113               0.134
  | Writing out data, calculating band gaps, etc.         :          0.671               0.680
  | Total SOC time                                        :          2.459               2.459

  Partial memory accounting:
  | Current value for overall tracked memory usage:
  |   Minimum:       10.537 MB (on task  0)
  |   Maximum:       10.596 MB (on task  7)
  |   Average:       10.550 MB
  | Peak value for overall tracked memory usage:
  |   Minimum:      204.022 MB (on task 32 after allocating tmpx2)
  |   Maximum:      291.194 MB (on task 13 after allocating tmpx2)
  |   Average:      239.429 MB
  | Largest tracked array allocation so far:
  |   Minimum:      190.160 MB (aux_mat on task  0)
  |   Maximum:      190.160 MB (aux_mat on task  0)
  |   Average:      190.160 MB
  Note:  These values currently only include a subset of arrays which are explicitly tracked.
  The "true" memory usage will be greater.
 ------------------------------------------------------------

------------------------------------------------------------------------------
  Final output of selected total energy values:

  The following output summarizes some interesting total energy values
  at the end of a run (AFTER all relaxation, molecular dynamics, etc.).

  | Total energy of the DFT / Hartree-Fock s.c.f. calculation      :         -15804.836148719 eV
  | Final zero-broadening corrected energy (caution - metals only) :         -15804.836148719 eV
  | Total energy after non-SC SOC correction (DO NOT USE)          :         -15804.837617960 eV
  | For reference only, the value of 1 Hartree used in FHI-aims is :             27.211384500 eV
  | For reference only, the overall average (free atom contribution
  | + realspace contribution) of the electrostatic potential after
  | s.c.f. convergence is                                          :            -13.103362289 eV

  Before relying on these values, please be sure to understand exactly which
  total energy value is referred to by a given number. Different objects may
  all carry the same name 'total energy'. Definitions:

  Total energy of the DFT / Hartree-Fock s.c.f. calculation:
  | Note that this energy does not include ANY quantities calculated after the
  | s.c.f. cycle, in particular not ANY RPA, MP2, etc. many-body perturbation terms.

  Final zero-broadening corrected energy:
  | For metallic systems only, a broadening of the occupation numbers at the Fermi
  | level can be extrapolated back to zero broadening by an electron-gas inspired
  | formula. For all systems that are not real metals, this value can be
  | meaningless and should be avoided.

------------------------------------------------------------------------------
  Methods described in the following list of references were used in this FHI-aims run.
  If you publish the results, please make sure to cite these reference if they apply.
  FHI-aims is an academic code, and for our developers (often, Ph.D. students
  and postdocs), scientific credit in the community is essential.
  Thank you for helping us!

  For any use of FHI-aims, please cite:

    Volker Blum, Ralf Gehrke, Felix Hanke, Paula Havu, Ville Havu,
    Xinguo Ren, Karsten Reuter, and Matthias Scheffler
    'Ab initio molecular simulations with numeric atom-centered orbitals'
    Computer Physics Communications 180, 2175-2196 (2009)
    http://doi.org/10.1016/j.cpc.2009.06.022


  For Hartree-Fock, hybrid functionals, or many-body perturbation theory used in your run, please cite:

    Xinguo Ren, Patrick Rinke, Volker Blum, Juergen Wieferink, Alex Tkatchenko,
    Andrea Sanfilippo, Karsten Reuter, and Matthias Scheffler,
    'Resolution-of-identity approach to Hartree-Fock, hybrid density functionals,
    RPA, MP2, and GW with numeric atom-centered orbital basis functions'
    New Journal of Physics 14, 053020 (2012).
    http://doi.org/10.1088/1367-2630/14/5/053020


  The provided symmetry information was generated with SPGlib:

    Atsushi Togo, Yusuke Seto, Dimitar Pashov
    SPGlib 1.7.3 obtained from http://spglib.sourceforge.net
    Copyright (C) 2008 Atsushi Togo


  For second-variational spin-orbit coupling used in your run, please cite:

    William P. Huhn and Volker Blum,
    'One-hundred-three compound band-structure benchmark of post-self-consistent'
    'spin-orbit coupling treatments in density functional theory'
    Phys. Rev. Materials 1, 033803 (2017).


  The ELSI infrastructure was used in your run to solve the Kohn-Sham electronic structure.
  Please check out http://elsi-interchange.org to learn more.
  If scalability is important for your project, please acknowledge ELSI by citing:

    V. W-z. Yu, F. Corsetti, A. Garcia, W. P. Huhn, M. Jacquelin, W. Jia,
    B. Lange, L. Lin, J. Lu, W. Mi, A. Seifitokaldani, A. Vazquez-Mayagoitia,
    C. Yang, H. Yang, and V. Blum
    'ELSI: A unified software interface for Kohn-Sham electronic structure solvers'
    Computer Physics Communications 222, 267-285 (2018).
    http://doi.org/10.1016/j.cpc.2017.09.007


  For the real-space grid partitioning and parallelization used in this calculation, please cite:

    Ville Havu, Volker Blum, Paula Havu, and Matthias Scheffler,
    'Efficient O(N) integration for all-electron electronic structure calculation'
    'using numerically tabulated basis functions'
    Journal of Computational Physics 228, 8367-8379 (2009).
    http://doi.org/10.1016/j.jcp.2009.08.008


  The high-level electronic structure method used in your calculation
  employed our efficient localized resolution of identity for the Coulomb operator.
  Some calculations, especially large-scale hybrid density functional theory,
  are only possible thanks to this development. For this feature, please cite:

    Arvid Ihrig, Juergen Wieferink, Igor Ying Zhang, Matti Ropo, Xinguo Ren,
    Patrick Rinke, Matthias Scheffler, and Volker Blum,
    'Accurate localized resolution of identity approach for linear-scaling
    hybrid density functionals and for many-body perturbation theory'
    New Journal of Physics 117, 093020 (2015).
    http://doi.org/10.1088/1367-2630/17/9/093020

  Of course, there are many other important community references, e.g., those cited in the
  above references. Our list is limited to references that describe implementations in the
  FHI-aims code. The reason is purely practical (length of this list) - please credit others as well.

------------------------------------------------------------
          Leaving FHI-aims.
          Date     :  20230525, Time     :  005107.737

          Computational steps:
          | Number of self-consistency cycles          :           12
          | Number of SCF (re)initializations          :            1

          Detailed time accounting                     :  max(cpu_time)    wall_clock(cpu1)
          | Total time                                  :      300.147 s         300.178 s
          | Preparation time                            :        0.186 s           0.184 s
          | Boundary condition initalization            :        0.522 s           0.523 s
          | Grid partitioning                           :        0.037 s           0.038 s
          | Preloading free-atom quantities on grid     :        0.074 s           0.075 s
          | Free-atom superposition energy              :        0.006 s           0.007 s
          | Total time for integrations                 :        2.168 s           2.168 s
          | Product basis setup: Total time             :       74.987 s          74.990 s
          | Total time evaluating exchange matrix       :      213.106 s         213.102 s
          | Total time for solution of K.-S. equations  :        2.467 s           2.468 s
          | Total time for density update               :        3.337 s           3.340 s
          | Total time for mixing                       :        0.007 s           0.009 s
          | Total time for Hartree multipole update     :        0.018 s           0.016 s
          | Total time for Hartree multipole sum        :        0.548 s           0.550 s
          | Total time for total energy evaluation      :        0.064 s           0.061 s
          | Total time for scaled ZORA corrections      :        0.000 s           0.000 s
          | Total time for perturbative SOC             :        2.459 s           2.459 s

          Partial memory accounting:
          | Residual value for overall tracked memory usage across tasks:     0.000000 MB (should be 0.000000 MB)
          | Peak values for overall tracked memory usage:
          |   Minimum:      204.022 MB (on task 32 after allocating tmpx2)
          |   Maximum:      291.194 MB (on task 13 after allocating tmpx2)
          |   Average:      239.429 MB
          | Largest tracked array allocation:
          |   Minimum:      190.160 MB (aux_mat on task  0)
          |   Maximum:      190.160 MB (aux_mat on task  0)
          |   Average:      190.160 MB
          Note:  These values currently only include a subset of arrays which are explicitly tracked.
          The "true" memory usage will be greater.

          Have a nice day.
------------------------------------------------------------
